Program Version,EnergyPlus, Version 9.4.0-998c4b761e, YMD=2024.03.02 21:08
1,5,Environment Title[],Latitude[deg],Longitude[deg],Time Zone[],Elevation[m]
2,8,Day of Simulation[],Month[],Day of Month[],DST Indicator[1=yes 0=no],Hour[],StartMinute[],EndMinute[],DayType
3,5,Cumulative Day of Simulation[],Month[],Day of Month[],DST Indicator[1=yes 0=no],DayType  ! When Daily Report Variables Requested
4,2,Cumulative Days of Simulation[],Month[]  ! When Monthly Report Variables Requested
5,1,Cumulative Days of Simulation[] ! When Run Period Report Variables Requested
6,1,Calendar Year of Simulation[] ! When Annual Report Variables Requested
7,1,Environment,Site Outdoor Air Drybulb Temperature [C] !TimeStep
8,1,Environment,Site Outdoor Air Humidity Ratio [kgWater/kgDryAir] !TimeStep
9,1,Environment,Site Outdoor Air Relative Humidity [%] !TimeStep
10,1,Environment,Site Wind Speed [m/s] !TimeStep
11,1,Environment,Site Diffuse Solar Radiation Rate per Area [W/m2] !TimeStep
12,1,Environment,Site Direct Solar Radiation Rate per Area [W/m2] !TimeStep
389,1,CORRIDOR,Zone Mean Air Temperature [C] !TimeStep
390,1,CORRIDOR,Zone Mean Air Humidity Ratio [kgWater/kgDryAir] !TimeStep
391,1,KITCHEN,Zone Mean Air Temperature [C] !TimeStep
392,1,KITCHEN,Zone Mean Air Humidity Ratio [kgWater/kgDryAir] !TimeStep
393,1,MASTER,Zone Mean Air Temperature [C] !TimeStep
394,1,MASTER,Zone Mean Air Humidity Ratio [kgWater/kgDryAir] !TimeStep
395,1,PARLOR,Zone Mean Air Temperature [C] !TimeStep
396,1,PARLOR,Zone Mean Air Humidity Ratio [kgWater/kgDryAir] !TimeStep
397,1,SECONDARY ONE,Zone Mean Air Temperature [C] !TimeStep
398,1,SECONDARY ONE,Zone Mean Air Humidity Ratio [kgWater/kgDryAir] !TimeStep
399,1,SECONDARY TWO,Zone Mean Air Temperature [C] !TimeStep
400,1,SECONDARY TWO,Zone Mean Air Humidity Ratio [kgWater/kgDryAir] !TimeStep
401,1,TOILET ONE,Zone Mean Air Temperature [C] !TimeStep
402,1,TOILET ONE,Zone Mean Air Humidity Ratio [kgWater/kgDryAir] !TimeStep
403,1,TOILET TWO,Zone Mean Air Temperature [C] !TimeStep
404,1,TOILET TWO,Zone Mean Air Humidity Ratio [kgWater/kgDryAir] !TimeStep
515,1,CORRIDOR,Zone Air Relative Humidity [%] !TimeStep
554,1,KITCHEN,Zone Air Relative Humidity [%] !TimeStep
593,1,MASTER,Zone Air Relative Humidity [%] !TimeStep
632,1,PARLOR,Zone Air Relative Humidity [%] !TimeStep
671,1,SECONDARY ONE,Zone Air Relative Humidity [%] !TimeStep
710,1,SECONDARY TWO,Zone Air Relative Humidity [%] !TimeStep
749,1,TOILET ONE,Zone Air Relative Humidity [%] !TimeStep
788,1,TOILET TWO,Zone Air Relative Humidity [%] !TimeStep
887,1,PARLOR HVAC,Zone Ideal Loads Supply Air Sensible Cooling Rate [W] !TimeStep
888,1,PARLOR HVAC,Zone Ideal Loads Supply Air Latent Cooling Rate [W] !TimeStep
889,1,PARLOR HVAC,Zone Ideal Loads Supply Air Total Cooling Rate [W] !TimeStep
890,1,PARLOR HVAC,Zone Ideal Loads Zone Sensible Cooling Rate [W] !TimeStep
891,1,PARLOR HVAC,Zone Ideal Loads Zone Latent Cooling Rate [W] !TimeStep
892,1,PARLOR HVAC,Zone Ideal Loads Zone Total Cooling Rate [W] !TimeStep
893,1,PARLOR HVAC,Zone Ideal Loads Outdoor Air Mass Flow Rate [kg/s] !TimeStep
894,1,PARLOR HVAC,Zone Ideal Loads Supply Air Mass Flow Rate [kg/s] !TimeStep
897,1,MASTER HVAC,Zone Ideal Loads Supply Air Sensible Cooling Rate [W] !TimeStep
898,1,MASTER HVAC,Zone Ideal Loads Supply Air Latent Cooling Rate [W] !TimeStep
899,1,MASTER HVAC,Zone Ideal Loads Supply Air Total Cooling Rate [W] !TimeStep
900,1,MASTER HVAC,Zone Ideal Loads Zone Sensible Cooling Rate [W] !TimeStep
901,1,MASTER HVAC,Zone Ideal Loads Zone Latent Cooling Rate [W] !TimeStep
902,1,MASTER HVAC,Zone Ideal Loads Zone Total Cooling Rate [W] !TimeStep
903,1,MASTER HVAC,Zone Ideal Loads Outdoor Air Mass Flow Rate [kg/s] !TimeStep
904,1,MASTER HVAC,Zone Ideal Loads Supply Air Mass Flow Rate [kg/s] !TimeStep
907,1,SECONDARY ONE HVAC,Zone Ideal Loads Supply Air Sensible Cooling Rate [W] !TimeStep
908,1,SECONDARY ONE HVAC,Zone Ideal Loads Supply Air Latent Cooling Rate [W] !TimeStep
909,1,SECONDARY ONE HVAC,Zone Ideal Loads Supply Air Total Cooling Rate [W] !TimeStep
910,1,SECONDARY ONE HVAC,Zone Ideal Loads Zone Sensible Cooling Rate [W] !TimeStep
911,1,SECONDARY ONE HVAC,Zone Ideal Loads Zone Latent Cooling Rate [W] !TimeStep
912,1,SECONDARY ONE HVAC,Zone Ideal Loads Zone Total Cooling Rate [W] !TimeStep
913,1,SECONDARY ONE HVAC,Zone Ideal Loads Outdoor Air Mass Flow Rate [kg/s] !TimeStep
914,1,SECONDARY ONE HVAC,Zone Ideal Loads Supply Air Mass Flow Rate [kg/s] !TimeStep
917,1,SECONDARY TWO HVAC,Zone Ideal Loads Supply Air Sensible Cooling Rate [W] !TimeStep
918,1,SECONDARY TWO HVAC,Zone Ideal Loads Supply Air Latent Cooling Rate [W] !TimeStep
919,1,SECONDARY TWO HVAC,Zone Ideal Loads Supply Air Total Cooling Rate [W] !TimeStep
920,1,SECONDARY TWO HVAC,Zone Ideal Loads Zone Sensible Cooling Rate [W] !TimeStep
921,1,SECONDARY TWO HVAC,Zone Ideal Loads Zone Latent Cooling Rate [W] !TimeStep
922,1,SECONDARY TWO HVAC,Zone Ideal Loads Zone Total Cooling Rate [W] !TimeStep
923,1,SECONDARY TWO HVAC,Zone Ideal Loads Outdoor Air Mass Flow Rate [kg/s] !TimeStep
924,1,SECONDARY TWO HVAC,Zone Ideal Loads Supply Air Mass Flow Rate [kg/s] !TimeStep
1072,1,PARLOR ZONE AIR NODE,System Node Temperature [C] !TimeStep
1073,1,PARLOR ZONE AIR NODE,System Node Mass Flow Rate [kg/s] !TimeStep
1074,1,PARLOR ZONE AIR NODE,System Node Humidity Ratio [kgWater/kgDryAir] !TimeStep
1075,1,PARLOR SUPPLY INLET,System Node Temperature [C] !TimeStep
1076,1,PARLOR SUPPLY INLET,System Node Mass Flow Rate [kg/s] !TimeStep
1077,1,PARLOR SUPPLY INLET,System Node Humidity Ratio [kgWater/kgDryAir] !TimeStep
1078,1,PARLOR RETURN OUTLET,System Node Temperature [C] !TimeStep
1079,1,PARLOR RETURN OUTLET,System Node Mass Flow Rate [kg/s] !TimeStep
1080,1,PARLOR RETURN OUTLET,System Node Humidity Ratio [kgWater/kgDryAir] !TimeStep
1081,1,MASTER ZONE AIR NODE,System Node Temperature [C] !TimeStep
1082,1,MASTER ZONE AIR NODE,System Node Mass Flow Rate [kg/s] !TimeStep
1083,1,MASTER ZONE AIR NODE,System Node Humidity Ratio [kgWater/kgDryAir] !TimeStep
1084,1,MASTER SUPPLY INLET,System Node Temperature [C] !TimeStep
1085,1,MASTER SUPPLY INLET,System Node Mass Flow Rate [kg/s] !TimeStep
1086,1,MASTER SUPPLY INLET,System Node Humidity Ratio [kgWater/kgDryAir] !TimeStep
1087,1,MASTER RETURN OUTLET,System Node Temperature [C] !TimeStep
1088,1,MASTER RETURN OUTLET,System Node Mass Flow Rate [kg/s] !TimeStep
1089,1,MASTER RETURN OUTLET,System Node Humidity Ratio [kgWater/kgDryAir] !TimeStep
1090,1,SECONDARY ONE  ZONE AIR NODE,System Node Temperature [C] !TimeStep
1091,1,SECONDARY ONE  ZONE AIR NODE,System Node Mass Flow Rate [kg/s] !TimeStep
1092,1,SECONDARY ONE  ZONE AIR NODE,System Node Humidity Ratio [kgWater/kgDryAir] !TimeStep
1093,1,SECONDARY ONE SUPPLY INLET,System Node Temperature [C] !TimeStep
1094,1,SECONDARY ONE SUPPLY INLET,System Node Mass Flow Rate [kg/s] !TimeStep
1095,1,SECONDARY ONE SUPPLY INLET,System Node Humidity Ratio [kgWater/kgDryAir] !TimeStep
1096,1,SECONDARY ONE RETURN OUTLET,System Node Temperature [C] !TimeStep
1097,1,SECONDARY ONE RETURN OUTLET,System Node Mass Flow Rate [kg/s] !TimeStep
1098,1,SECONDARY ONE RETURN OUTLET,System Node Humidity Ratio [kgWater/kgDryAir] !TimeStep
1099,1,SECONDARY TWO  ZONE AIR NODE,System Node Temperature [C] !TimeStep
1100,1,SECONDARY TWO  ZONE AIR NODE,System Node Mass Flow Rate [kg/s] !TimeStep
1101,1,SECONDARY TWO  ZONE AIR NODE,System Node Humidity Ratio [kgWater/kgDryAir] !TimeStep
1102,1,SECONDARY TWO SUPPLY INLET,System Node Temperature [C] !TimeStep
1103,1,SECONDARY TWO SUPPLY INLET,System Node Mass Flow Rate [kg/s] !TimeStep
1104,1,SECONDARY TWO SUPPLY INLET,System Node Humidity Ratio [kgWater/kgDryAir] !TimeStep
1105,1,SECONDARY TWO RETURN OUTLET,System Node Temperature [C] !TimeStep
1106,1,SECONDARY TWO RETURN OUTLET,System Node Mass Flow Rate [kg/s] !TimeStep
1107,1,SECONDARY TWO RETURN OUTLET,System Node Humidity Ratio [kgWater/kgDryAir] !TimeStep
End of Data Dictionary
1,RUNPERIOD,  23.17, 113.33,   8.00,  41.00
2,1, 7,21, 1, 1, 0.00, 1.00,Monday
7,31.0
8,0.017254106314215646
9,60.0
10,3.983333333333333
11,0.0
12,0.0
389,30.234792820887447
390,0.021232854544551428
391,36.07818188623141
392,0.02643817188356237
393,26.16668060030442
394,0.01025946126062674
395,25.0
396,0.010020747774851244
397,24.999999999999998
398,0.01002074781941009
399,25.000000000000005
400,0.01002074835313104
401,32.890692263100678
402,0.02549170770105644
403,32.137114931131957
404,0.021159807579020856
515,76.65871566771033
554,68.23076619072525
593,47.74834466446581
632,49.999997160337667
671,50.000000221783249
710,49.99999999999996
749,78.63947892436572
788,68.56564720930743
887,2162.303909967464
888,808.3065030856874
889,2970.610413053151
890,2162.303909967464
891,808.3065030856874
892,2970.610413053151
893,0.0
894,0.3123969404358253
897,2597.2808445920488
898,9737.749883884195
899,12335.030728476244
900,2597.2808445920488
901,1987.2501489341935
902,4584.530993526242
903,0.0
904,0.3
907,649.2140775448461
908,204.54790332333313
909,853.7619808681792
910,649.2140775448461
911,204.54790332333313
912,853.7619808681792
913,0.0
914,0.0791270445676308
917,491.50758802677606
918,173.91470710411648
919,665.4222951308925
920,491.50758802677606
921,173.91470710411648
922,665.4222951308925
923,0.0
924,0.06723381625177241
1072,25.0
1073,0.3123969404358253
1074,0.010020747774851244
1075,18.23705798176292
1076,0.3123969404358253
1077,0.009
1078,24.999999999999998
1079,0.3123969404358253
1080,0.010020747781120403
1081,26.16668060030442
1082,0.3
1083,0.01025946126062674
1084,18.55
1085,0.3
1086,0.008
1087,27.000000000000005
1088,0.3
1089,0.010612647198517098
1090,24.999999999999998
1091,0.0791270445676308
1092,0.01002074781941009
1093,16.9834282243151
1094,0.0791270445676308
1095,0.009
1096,24.999999999999998
1097,0.0791270445676308
1098,0.010020748353131049
1099,25.000000000000005
1100,0.06723381625177241
1101,0.01002074835313104
1102,17.857205330390945
1103,0.06723381625177241
1104,0.009
1105,25.0
1106,0.06723381625177241
1107,0.01002074835313094
2,1, 7,21, 1, 1, 1.00, 2.00,Monday
7,31.0
8,0.017254106314215646
9,60.0
10,3.966666666666667
11,0.0
12,0.0
389,30.25759428564856
390,0.02117399737823283
391,36.154984715067239
392,0.026263329532436487
393,25.55523188932923
394,0.010114149003419962
395,24.999999999999998
396,0.01002074830216375
397,25.0
398,0.010020747777769032
399,25.0
400,0.010020748353131049
401,32.96029462087529
402,0.025318507485164768
403,32.20602690627016
404,0.020988524312255845
515,76.35339365376153
554,67.51278805465788
593,48.81915644620841
632,50.00000259236139
671,49.99999717466556
710,49.99999999999999
749,77.82126210208279
788,67.76447368761447
887,2162.217100955938
888,808.3014927613094
889,2970.5185937172475
890,2162.217100955938
891,808.3014927613094
892,2970.5185937172475
893,0.0
894,0.3123949535995547
897,1509.9831908114284
898,0.0
899,1509.9831908114284
900,1509.9831908114284
901,169.64205159040649
902,1679.6252424018349
903,0.0
904,0.3
907,649.1567946792383
908,204.54594799127904
909,853.7027426705173
910,649.1567946792383
911,204.54594799127904
912,853.7027426705173
913,0.0
914,0.07912629288274417
917,491.4981933848359
918,173.91472452351526
919,665.4129179083511
920,491.4981933848359
921,173.91472452351526
922,665.4129179083511
923,0.0
924,0.06723381625239554
1072,24.999999999999998
1073,0.3123949535995547
1074,0.01002074830216375
1075,18.237286479701426
1076,0.3123949535995547
1077,0.009
1078,25.0
1079,0.3123949535995547
1080,0.010020747774851244
1081,25.55523188932923
1082,0.3
1083,0.010114149003419962
1084,21.25094745092355
1085,0.3
1086,0.01003687284481765
1087,26.16668060030442
1088,0.3
1089,0.01025946126062674
1090,25.0
1091,0.07912629288274417
1092,0.010020747777769032
1093,16.98405940290206
1094,0.07912629288274417
1095,0.009
1096,24.999999999999998
1097,0.07912629288274417
1098,0.01002074781941009
1099,25.0
1100,0.06723381625239554
1101,0.010020748353131049
1102,17.857341857338946
1103,0.06723381625239554
1104,0.009
1105,25.000000000000005
1106,0.06723381625239554
1107,0.01002074835313104
2,1, 7,21, 1, 1, 2.00, 3.00,Monday
7,31.0
8,0.017254106314215646
9,60.0
10,3.9499999999999999
11,0.0
12,0.0
389,30.280539801825687
390,0.021107965277540668
391,36.23278210663385
392,0.026072400270822438
393,25.144671816095074
394,0.010095047742077476
395,25.0
396,0.010020747820774537
397,25.0
398,0.010020748308241672
399,24.999999999999998
400,0.010020748353131049
401,33.02716396451514
402,0.02512998889488313
403,32.27334783750787
404,0.02080132765629425
515,76.02309736058624
554,66.75639906945108
593,49.93253980574889
632,49.99999738584553
671,49.99999977956921
710,50.000002842638028
749,76.9748230840456
788,66.92481901686706
887,2161.973846519235
888,808.313714288985
889,2970.28756080822
890,2161.973846519235
891,808.313714288985
892,2970.28756080822
893,0.0
894,0.3123993196735802
897,1679.4112332207236
898,0.0
899,1679.4112332207236
900,1679.4112332207236
901,337.747415360137
902,2017.1586485808605
903,0.0
904,0.3
907,649.0276766440329
908,204.5456787213758
909,853.5733553654087
910,649.0276766440329
911,204.5456787213758
912,853.5733553654087
913,0.0
914,0.07912610047502108
917,491.4449361390872
918,173.9148232631619
919,665.3597594022491
920,491.4449361390872
921,173.9148232631619
922,665.3597594022491
923,0.0
924,0.0672338162524621
1072,25.0
1073,0.3123993196735802
1074,0.010020747820774537
1075,18.23814181176988
1076,0.3123993196735802
1077,0.009
1078,24.999999999999998
1079,0.3123993196735802
1080,0.01002074830216375
1081,25.144671816095074
1082,0.3
1083,0.010095047742077476
1084,20.08648490599523
1085,0.3
1086,0.009670610536668468
1087,25.55523188932923
1088,0.3
1089,0.010114149003419962
1090,25.0
1091,0.07912610047502108
1092,0.010020748308241672
1093,16.985634293966315
1094,0.07912610047502108
1095,0.009
1096,25.0
1097,0.07912610047502108
1098,0.010020747777769032
1099,24.999999999999998
1100,0.0672338162524621
1101,0.010020748353131049
1102,17.858115814005715
1103,0.0672338162524621
1104,0.009
1105,25.0
1106,0.0672338162524621
1107,0.010020748353131049
2,1, 7,21, 1, 1, 3.00, 4.00,Monday
7,31.0
8,0.017254106314215646
9,60.0
10,3.9333333333333337
11,0.0
12,0.0
389,30.30018471250797
390,0.021042082182812454
391,36.30008501956314
392,0.025888263719416387
393,24.796155467288917
394,0.010054286190306853
395,25.0
396,0.010020748306211403
397,25.0
398,0.010020748349628779
399,25.000000000000005
400,0.010020747822287785
401,33.08158020158402
402,0.024948882731985146
403,32.32919554696581
404,0.020620618198076456
515,75.70833655772066
554,66.05970658676944
593,50.77848448635923
632,49.99999976959951
671,49.99999998280199
710,49.99999739327639
749,76.20842733577037
788,66.15327144036279
887,2161.7713585297749
888,808.2993658579576
889,2970.0707243877325
890,2161.7713585297749
891,808.2993658579576
892,2970.0707243877325
893,0.0
894,0.3123938038408769
897,1773.318292248082
898,0.0
899,1773.318292248082
900,1773.318292248082
901,598.3942018972007
902,2371.7124941452827
903,0.0
904,0.3
907,648.9048733145646
908,204.5478067043574
909,853.452680018922
910,648.9048733145646
911,204.5478067043574
912,853.452680018922
913,0.0
914,0.07912679040491994
917,491.39607190934125
918,173.91600938637408
919,665.3120812957153
920,491.39607190934125
921,173.91600938637408
922,665.3120812957153
923,0.0
924,0.0672342375660621
1072,25.0
1073,0.3123938038408769
1074,0.010020748306211403
1075,18.238655733054427
1076,0.3123938038408769
1077,0.009
1078,25.0
1079,0.3123938038408769
1080,0.010020747820774537
1081,24.796155467288917
1082,0.3
1083,0.010054286190306853
1084,19.36993047740286
1085,0.3
1086,0.00930880870597417
1087,25.144671816095074
1088,0.3
1089,0.010095047742077476
1090,25.0
1091,0.07912679040491994
1092,0.010020748349628779
1093,16.98722057613877
1094,0.07912679040491994
1095,0.009
1096,25.0
1097,0.07912679040491994
1098,0.010020748308241672
1099,25.000000000000005
1100,0.0672342375660621
1101,0.010020747822287785
1102,17.858870678643855
1103,0.0672342375660621
1104,0.009
1105,24.999999999999998
1106,0.0672342375660621
1107,0.010020748353131049
2,1, 7,21, 1, 1, 4.00, 5.00,Monday
7,31.0
8,0.017254106314215646
9,60.0
10,3.9166666666666667
11,0.0
12,0.0
389,30.31611165363381
390,0.020978183197660005
391,36.355260319399608
392,0.02571621801966901
393,24.78211552370989
394,0.00994727333694373
395,25.000000000000005
396,0.010020748348995704
397,25.000000000000005
398,0.010020748352857807
399,25.0
400,0.010020748309076278
401,33.12313413338507
402,0.02478034411879217
403,32.37324291563447
404,0.02045159783747396
515,75.4171057696811
554,65.44006855821921
593,50.288671762477758
632,49.99999997969324
671,49.999999998658228
710,49.99999978366757
749,75.53707107949906
788,65.4654487719705
887,2161.5626997811775
888,808.310230918853
889,2969.8729307000305
890,2161.5626997811775
891,808.310230918853
892,2969.8729307000305
893,0.0
894,0.3123976856707905
897,1163.1660842053546
898,0.0
899,1163.1660842053546
900,1163.1660842053546
901,763.6213157343798
902,1926.7873999397344
903,0.0
904,0.3
907,648.7686697069731
908,204.54717640487855
909,853.3158461118517
910,648.7686697069731
911,204.54717640487855
912,853.3158461118517
913,0.0
914,0.07912644770337213
917,491.334342232076
918,173.91339922998407
919,665.24774146206
920,491.334342232076
921,173.91339922998407
922,665.24774146206
923,0.0
924,0.06723322453266421
1072,25.000000000000005
1073,0.3123976856707905
1074,0.010020748348995704
1075,18.23939236612052
1076,0.3123976856707905
1077,0.009
1078,25.0
1079,0.3123976856707905
1080,0.010020748306211403
1081,24.78211552370989
1082,0.3
1083,0.00994727333694373
1084,21.00807040144643
1085,0.3
1086,0.009052155698841032
1087,24.796155467288917
1088,0.3
1089,0.010054286190306853
1090,25.000000000000005
1091,0.07912644770337213
1092,0.010020748352857807
1093,16.988867743747286
1094,0.07912644770337213
1095,0.009
1096,25.0
1097,0.07912644770337213
1098,0.010020748349628779
1099,25.0
1100,0.06723322453266421
1101,0.010020748309076278
1102,17.859660162622029
1103,0.06723322453266421
1104,0.009
1105,25.000000000000005
1106,0.06723322453266421
1107,0.010020747822287785
2,1, 7,21, 1, 1, 5.00, 6.00,Monday
7,31.0
8,0.017254106314215646
9,60.0
10,3.9000000000000005
11,0.0
12,0.0
389,30.328990402481826
390,0.020916088205181959
391,36.400589802128617
392,0.025555166730454359
393,24.929147407792685
394,0.009820024683742676
395,25.0
396,0.010020748352766574
397,25.0
398,0.010020748353109732
399,25.000000000000005
400,0.010020748349474893
401,33.154727330964487
402,0.024623119410535526
403,32.40814396366968
404,0.020293210947422203
515,75.1456949344113
554,64.88518427254891
593,49.22154963103411
632,49.999999998210238
671,49.99999999989532
710,49.999999982046329
749,74.94317014437584
788,64.84672769993095
887,2161.3519913757197
888,808.3072369101378
889,2969.6592282858575
890,2161.3519913757197
891,808.3072369101378
892,2969.6592282858575
893,0.0
894,0.3123963709816613
897,1141.9797278906486
898,0.0
899,1141.9797278906486
900,1141.9797278906486
901,713.833995730964
902,1855.8137236216126
903,0.0
904,0.3
907,648.6298375200204
908,204.54759405356766
909,853.177431573588
910,648.6298375200204
911,204.54759405356766
912,853.177431573588
913,0.0
914,0.0791265090837054
917,491.26962659399598
918,173.91582786574606
919,665.185454459742
920,491.26962659399598
921,173.91582786574606
922,665.185454459742
923,0.0
924,0.06723408048790541
1072,25.0
1073,0.3123963709816613
1074,0.010020748352766574
1075,18.240022939832739
1076,0.3123963709816613
1077,0.009
1078,25.000000000000005
1079,0.3123963709816613
1080,0.010020748348995704
1081,24.929147407792685
1082,0.3
1083,0.009820024683742676
1084,21.06230512664655
1085,0.3
1086,0.009010517899582399
1087,24.78211552370989
1088,0.3
1089,0.00994727333694373
1090,25.0
1091,0.0791265090837054
1092,0.010020748353109732
1093,16.990588285994336
1094,0.0791265090837054
1095,0.009
1096,25.000000000000005
1097,0.0791265090837054
1098,0.010020748352857807
1099,25.000000000000005
1100,0.06723408048790541
1101,0.010020748349474893
1102,17.860691543539269
1103,0.06723408048790541
1104,0.009
1105,25.0
1106,0.06723408048790541
1107,0.010020748309076278
2,1, 7,21, 1, 1, 6.00, 7.00,Monday
7,31.0
8,0.017254106314215646
9,60.0
10,3.8833333333333335
11,0.0
12,0.0
389,30.339558971365347
390,0.020855336766531036
391,36.43797469613281
392,0.02540319400244347
393,25.195016478578358
394,0.009814770485516943
395,25.0
396,0.010020748353098925
397,25.0
398,0.010020748353129387
399,25.000000000000005
400,0.01002074835282762
401,33.17921616493433
402,0.024475148207257808
403,32.436401715342999
404,0.020143597533698065
515,74.88917826144885
554,64.38259345061698
593,48.42239888820051
632,49.99999999984225
671,49.99999999999184
710,49.999999998510009
749,74.40762823413168
788,64.2811474291505
887,2161.1331404610534
888,808.308127656228
889,2969.441268117281
890,2161.1331404610534
891,808.308127656228
892,2969.441268117281
893,0.0
894,0.31239655635029059
897,927.5982369136455
898,0.0
899,927.5982369136455
900,927.5982369136455
901,149.42935270539057
902,1077.027589619036
903,0.0
904,0.3
907,648.4901805104491
908,204.54786548178925
909,853.0380459922384
910,648.4901805104491
911,204.54786548178925
912,853.0380459922384
913,0.0
914,0.07912651387253027
917,491.204491684959
918,173.9151443867807
919,665.1196360717397
920,491.204491684959
921,173.9151443867807
922,665.1196360717397
923,0.0
924,0.06723376854973692
1072,25.0
1073,0.31239655635029059
1074,0.010020748353098925
1075,18.240711442225718
1076,0.31239655635029059
1077,0.009
1078,25.0
1079,0.31239655635029059
1080,0.010020748352766574
1081,25.195016478578358
1082,0.3
1083,0.009814770485516943
1084,21.90695072045351
1085,0.3
1086,0.00962405155084819
1087,24.929147407792685
1088,0.3
1089,0.009820024683742676
1090,25.0
1091,0.07912651387253027
1092,0.010020748353129387
1093,16.99231328348016
1094,0.07912651387253027
1095,0.009
1096,25.0
1097,0.07912651387253027
1098,0.010020748353109732
1099,25.000000000000005
1100,0.06723376854973692
1101,0.01002074835282762
1102,17.861604989009736
1103,0.06723376854973692
1104,0.009
1105,25.000000000000005
1106,0.06723376854973692
1107,0.010020748349474893
2,1, 7,21, 1, 1, 7.00, 8.00,Monday
7,31.0
8,0.017254106314215646
9,60.0
10,3.8666666666666669
11,0.0
12,0.0
389,30.348358104487777
390,0.02079565888272762
391,36.46887514058811
392,0.02525905975520555
393,25.423529762788755
394,0.009909682294490392
395,24.999999999999998
396,0.010020748353128217
397,25.0
398,0.01002074835313092
399,25.0
400,0.010020748353105867
401,33.198608183624418
402,0.024335078539010004
403,32.45974230293863
404,0.02000155636809408
515,74.64420079782195
554,63.92337439541662
593,48.22344982357543
632,50.00000284262413
671,49.99999999999937
710,49.999999999876347
749,73.91743804599459
788,63.758062476920667
887,2160.8785004159578
888,808.3086425064912
889,2969.187142922449
890,2160.8785004159578
891,808.3086425064912
892,2969.187142922449
893,0.0
894,0.3123965726877818
897,0.0
898,0.0
899,0.0
900,1015.7675353766573
901,0.0
902,1015.7675353766573
903,0.0
904,0.3
907,648.3358201037299
908,204.5481526430059
909,852.8839727467358
910,648.3358201037299
911,204.5481526430059
912,852.8839727467358
913,0.0
914,0.07912651424615452
917,491.1308623477963
918,173.9153952134393
919,665.0462575612356
920,491.1308623477963
921,173.9153952134393
922,665.0462575612356
923,0.0
924,0.06723381229363683
1072,24.999999999999998
1073,0.3123965726877818
1074,0.010020748353128217
1075,18.241508223031997
1076,0.3123965726877818
1077,0.009
1078,25.0
1079,0.3123965726877818
1080,0.010020748353098925
1081,25.423529762788755
1082,0.3
1083,0.009909682294490392
1084,21.88552486259557
1085,0.3
1086,0.009814770485516943
1087,25.195016478578358
1088,0.3
1089,0.009814770485516943
1090,25.0
1091,0.07912651424615452
1092,0.01002074835313092
1093,16.994219394521026
1094,0.07912651424615452
1095,0.009
1096,25.0
1097,0.07912651424615452
1098,0.010020748353129387
1099,25.0
1100,0.06723381229363683
1101,0.010020748353105867
1102,17.862679645970979
1103,0.06723381229363683
1104,0.009
1105,25.000000000000005
1106,0.06723381229363683
1107,0.01002074835282762
2,1, 7,21, 1, 1, 8.00, 9.00,Monday
7,31.0
8,0.017254106314215646
9,60.0
10,3.8499999999999998
11,0.0
12,0.0
389,30.355745695909368
390,0.020736957567749439
391,36.49439349376387
392,0.025122120773627328
393,25.44098908736515
394,0.010038837279280894
395,25.0
396,0.010020747825266264
397,25.0
398,0.010020748353131038
399,24.999999999999998
400,0.010020748353128958
401,33.214167247220647
402,0.024202189460147854
403,32.47924354485776
404,0.019866468665447228
515,74.40881440658953
554,63.50156239846445
593,48.791331406322118
632,49.9999974079023
671,49.99999999999994
710,50.00000284262776
749,73.46481017560518
788,63.27120590352649
887,2160.603807586871
888,808.3139217630305
889,2968.9177293499017
890,2160.603807586871
891,808.3139217630305
892,2968.9177293499017
893,0.0
894,0.3123984070945993
897,0.0
898,0.0
899,0.0
900,1325.4150246859868
901,0.0
902,1325.4150246859868
903,0.0
904,0.3
907,648.1766434979838
908,204.54844783415434
909,852.7250913321382
910,648.1766434979838
911,204.54844783415434
912,852.7250913321382
913,0.0
914,0.07912651427530719
917,491.0544700298561
918,173.9155463326935
919,664.9700163625496
920,491.0544700298561
921,173.9155463326935
922,664.9700163625496
923,0.0
924,0.06723381592392197
1072,25.0
1073,0.3123984070945993
1074,0.010020747825266264
1075,18.242407049510577
1076,0.3123984070945993
1077,0.009
1078,24.999999999999998
1079,0.3123984070945993
1080,0.010020748353128217
1081,25.44098908736515
1082,0.3
1083,0.010038837279280894
1084,21.10591434025934
1085,0.3
1086,0.009909682294490392
1087,25.423529762788755
1088,0.3
1089,0.009909682294490392
1090,25.0
1091,0.07912651427530719
1092,0.010020748353131038
1093,16.996184942089856
1094,0.07912651427530719
1095,0.009
1096,25.0
1097,0.07912651427530719
1098,0.01002074835313092
1099,24.999999999999998
1100,0.06723381592392197
1101,0.010020748353128958
1102,17.863790196603089
1103,0.06723381592392197
1104,0.009
1105,25.0
1106,0.06723381592392197
1107,0.010020748353105867
2,1, 7,21, 1, 1, 9.00,10.00,Monday
7,31.0
8,0.017254106314215646
9,60.0
10,3.8333333333333337
11,0.0
12,0.0
389,30.361970514541154
390,0.02067921148005718
391,36.515398558487927
392,0.024992001168596849
393,25.364639199653838
394,0.010170049748542456
395,25.0
396,0.010020748306607255
397,25.0
398,0.010020748353131049
399,25.000000000000005
400,0.01002074782228761
401,33.22670973930672
402,0.02407605319803049
403,32.49560892705166
404,0.019737976353514779
515,74.18183543097675
554,63.11280621050555
593,49.64355288954182
632,49.999999771543347
671,49.99999999999999
710,49.99999739327552
749,73.04483427893837
788,62.81661491961506
887,2160.3172883404774
888,808.3026394350695
889,2968.619927775547
890,2160.3172883404774
891,808.3026394350695
892,2968.619927775547
893,0.0
894,0.31239402464926477
897,1313.1969529638007
898,0.0
899,1313.1969529638007
900,1313.1969529638007
901,5.9117155615240335e-12
902,1313.1969529638066
903,0.0
904,0.3
907,648.0174580709279
908,204.54874297147115
909,852.566201042399
910,648.0174580709279
911,204.54874297147115
912,852.566201042399
913,0.0
914,0.07912651427757703
917,490.97802716448879
918,173.91678437430478
919,664.8948115387935
920,490.97802716448879
921,173.91678437430478
922,664.8948115387935
923,0.0
924,0.0672342375387968
1072,25.0
1073,0.31239402464926477
1074,0.010020748306607255
1075,18.24320838548254
1076,0.31239402464926477
1077,0.009
1078,25.0
1079,0.31239402464926477
1080,0.010020747825266264
1081,25.364639199653838
1082,0.3
1083,0.010170049748542456
1084,21.16417822202231
1085,0.3
1086,0.01003883727928089
1087,25.44098908736515
1088,0.3
1089,0.010038837279280894
1090,25.0
1091,0.07912651427757703
1092,0.010020748353131049
1093,16.99815059586593
1094,0.07912651427757703
1095,0.009
1096,25.0
1097,0.07912651427757703
1098,0.010020748353131038
1099,25.000000000000005
1100,0.0672342375387968
1101,0.01002074782228761
1102,17.864945839464043
1103,0.0672342375387968
1104,0.009
1105,24.999999999999998
1106,0.0672342375387968
1107,0.010020748353128958
2,1, 7,21, 1, 1,10.00,11.00,Monday
7,31.0
8,0.017254106314215646
9,60.0
10,3.8166666666666666
11,0.0
12,0.0
389,30.36723059399985
390,0.02062241598005637
391,36.53261940336887
392,0.0248683950910568
393,25.20794109143599
394,0.01027876994139918
395,24.999999999999998
396,0.010020748349030592
397,25.0
398,0.010020748353131049
399,25.000000000000005
400,0.010020748309076264
401,33.236824338234978
402,0.02395632882522667
403,32.50936350991116
404,0.019615789365892666
515,73.96235594747371
554,62.753536265291149
593,50.63541116615128
632,50.0000028225026
671,49.99999999999999
710,49.999999783667508
749,72.65387977009499
788,62.39126685289502
887,2160.016333398235
888,808.3131488155113
889,2968.3294822137465
890,2160.016333398235
891,808.3131488155113
892,2968.3294822137465
893,0.0
894,0.3123977051320172
897,1457.3460713996195
898,0.0
899,1457.3460713996195
900,1457.3460713996195
901,80.2300944457777
902,1537.576165845397
903,0.0
904,0.3
907,647.8551292356425
908,204.54904393124674
909,852.4041731668892
910,647.8551292356425
911,204.54904393124674
912,852.4041731668892
913,0.0
914,0.07912651427775806
917,490.8984537172619
918,173.91420736536385
919,664.8126610826257
920,490.8984537172619
921,173.91420736536385
922,664.8126610826257
923,0.0
924,0.06723322453040102
1072,24.999999999999998
1073,0.3123977051320172
1074,0.010020748349030592
1075,18.244229276981078
1076,0.3123977051320172
1077,0.009
1078,25.0
1079,0.3123977051320172
1080,0.010020748306607255
1081,25.20794109143599
1082,0.3
1083,0.01027876994139918
1084,20.61949531658233
1085,0.3
1086,0.01006473066714437
1087,25.364639199653838
1088,0.3
1089,0.010170049748542456
1090,25.0
1091,0.07912651427775806
1092,0.010020748353131049
1093,17.000155064865316
1094,0.07912651427775806
1095,0.009
1096,25.0
1097,0.07912651427775806
1098,0.010020748353131049
1099,25.000000000000005
1100,0.06723322453040102
1101,0.010020748309076264